# vtk DataFile Version 1.0
Texture map for thresholding data (use boolean textures for 2D map)
ASCII

DATASET STRUCTURED_POINTS
DIMENSIONS 17 12 12
SPACING 0.2 0.2 0.2
ORIGIN -1.6 -1.1 -1.1

POINT_DATA 2448
SCALARS distance float 1
LOOKUP_TABLE default
-3.5636177
-4.351989
-3.969037
-3.53478
-3.1124752
-2.7128308
-2.3693092
-2.134124
-2.050398
-2.134124
-2.3693092
-2.7128308
-3.1124752
-3.53478
-3.970821
-4.391678
-3.671504
-4.3519883
-5.268515
-4.78786
-4.2491527
-3.729497
-3.2392747
-2.8070254
-2.4951591
-2.3796067
-2.4951594
-2.8070254
-3.2392747
-3.7294965
-4.249152
-4.794322
-5.404896
-4.7227106
-3.9690366
-4.787861
-4.309512
-3.7841687
-3.285694
-2.8261027
-2.4266775
-2.1330674
-2.020404
-2.1330674
-2.4266775
-2.8261027
-3.2856936
-3.7841687
-4.321661
-5.0413623
-4.6581283
-3.5347805
-4.2491536
-3.7841692
-3.2856936
-2.8258684
-2.4222004
-2.099171
-1.8864934
-1.8115411
-1.8864934
-2.0991712
-2.4222004
-2.825868
-3.2856941
-3.8019004
-4.6187797
-4.5395293
-3.112475
-3.7294965
-3.2856932
-2.825867
-2.4222002
-2.0988739
-1.8810372
-1.7732556
-1.7451715
-1.7732556
-1.8810375
-2.0988736
-2.4222004
-2.8258672
-3.308874
-4.2123547
-4.42502
-2.7128313
-3.2392755
-2.8261027
-2.4222
-2.0988734
-1.8810375
-1.7729187
-1.7394159
-1.7343261
-1.7394159
-1.7729187
-1.8810375
-2.098874
-2.4222004
-2.854444
-3.829194
-4.316398
-2.3693094
-2.8070269
-2.4266775
-2.09917
-1.8810375
-1.7729189
-1.7394159
-1.7339847
-1.7336433
-1.7339847
-1.7394159
-1.7729189
-1.8810375
-2.0991707
-2.4593902
-3.4875193
-4.2190824
-2.1341245
-2.4951594
-2.1332326
-1.8872766
-1.7746687
-1.7409999
-1.7355688
-1.7352271
-1.7352271
-1.7352273
-1.7355685
-1.7409999
-1.7746692
-1.8872771
-2.1688614
-3.2360594
-4.148097
-2.0503983
-2.3799062
-2.0250819
-1.8308344
-1.7794209
-1.7732284
-1.7728868
-1.7728868
-1.7728868
-1.7728868
-1.7728868
-1.7732282
-1.7794209
-1.8308353
-2.0617313
-3.141982
-4.1219344
-2.1577806
-2.5323505
-2.2015984
-2.031453
-1.9965687
-1.9949405
-1.9949405
-1.9949405
-1.9949405
-1.9949405
-1.9949405
-1.9949405
-1.9965687
-2.031453
-2.2372262
-3.2672107
-4.155335
-2.8201802
-3.4637566
-3.2394936
-3.1166253
-3.0920148
-3.0909717
-3.0909717
-3.090972
-3.0909715
-3.090972
-3.0909717
-3.0909717
-3.0920157
-3.1166253
-3.2661667
-4.0160446
-4.3214564
-3.223206
-4.1708913
-4.1480646
-4.11511
-4.1085544
-4.1082854
-4.1082854
-4.1082854
-4.1082854
-4.1082854
-4.1082854
-4.1082854
-4.108554
-4.1151104
-4.1550674
-4.321457
-3.6324844
-4.535768
-5.4840565
-4.978605
-4.4056244
-3.8425674
-3.3021839
-2.8293204
-2.4992955
-2.3802028
-2.4992955
-2.8293207
-3.3021839
-3.842567
-4.405625
-4.9826384
-5.5703006
-4.7702055
-5.484055
-6.5758967
-5.937392
-5.2211533
-4.520937
-3.8479238
-3.2392385
-2.7867677
-2.6151438
-2.7867677
-3.2392385
-3.8479238
-4.5209374
-5.221154
-5.947992
-6.7971525
-6.0854917
-4.978605
-5.937393
-5.2951136
-4.587382
-3.9031687
-3.255374
-2.6713014
-2.2224588
-2.043793
-2.222459
-2.6713014
-3.255374
-3.9031687
-4.5873833
-5.3131604
-6.312146
-5.997289
-4.4056253
-5.221154
-4.587383
-3.9031692
-3.2550318
-2.6645243
-2.1683352
-1.8229508
-1.69558
-1.8229511
-2.1683352
-2.6645243
-3.2550323
-3.9031677
-4.612802
-5.748699
-5.839644
-3.8425665
-4.520937
-3.9031687
-3.2550313
-2.6645243
-2.1678479
-1.8135872
-1.6281698
-1.5779021
-1.6281698
-1.8135872
-2.1678476
-2.6645243
-3.255032
-3.9358497
-5.198879
-5.6854033
-3.3021839
-3.8479242
-3.255374
-2.6645243
-2.1678479
-1.8135874
-1.6275656
-1.5673187
-1.5579238
-1.5673187
-1.6275656
-1.8135872
-2.167848
-2.6645238
-3.2950191
-4.6698256
-5.536346
-2.8293214
-3.2392392
-2.6713014
-2.1683347
-1.8135867
-1.6275656
-1.567318
-1.557292
-1.5566602
-1.557292
-1.567318
-1.6275656
-1.8135872
-2.1683354
-2.7169366
-4.1847353
-5.3994513
-2.4992952
-2.7867682
-2.2227473
-1.8243387
-1.6307037
-1.5701685
-1.5601418
-1.55951
-1.5595102
-1.55951
-1.5601418
-1.5701687
-1.6307037
-1.8243387
-2.2724388
-3.8159084
-5.2967935
-2.3802035
-2.6156316
-2.0517771
-1.7293127
-1.6389792
-1.6276479
-1.6270161
-1.6270163
-1.6270161
-1.6270163
-1.6270161
-1.6276479
-1.6389799
-1.729312
-2.1029031
-3.674377
-5.258186
-2.5323505
-2.8391817
-2.324624
-2.0532587
-1.9956133
-1.9928708
-1.9928708
-1.9928708
-1.9928708
-1.9928708
-1.9928708
-1.9928708
-1.9956133
-2.0532587
-2.3743157
-3.8598785
-5.306898
-3.463757
-4.1620092
-3.821064
-3.6352892
-3.5973349
-3.595714
-3.595714
-3.595714
-3.595714
-3.5957146
-3.595714
-3.595714
-3.5973363
-3.6352897
-3.8582563
-4.928971
-5.5485764
-4.170891
-5.339469
-5.29673
-5.2479286
-5.2380786
-5.2376738
-5.2376733
-5.237674
-5.2376738
-5.237674
-5.2376733
-5.2376738
-5.238079
-5.2479305
-5.3064938
-5.548577
-4.739306
-4.4585805
-5.3703
-4.83845
-4.2363377
-3.638391
-3.0560536
-2.536462
-2.165739
-2.0297592
-2.165739
-2.536462
-3.0560536
-3.6383915
-4.236339
-4.8441515
-5.4909205
-4.7864637
-5.3702984
-6.409255
-5.733232
-4.974726
-4.222806
-3.4851828
-2.7978234
-2.2667685
-2.0583675
-2.2667682
-2.7978234
-3.4851828
-4.2228065
-4.9747267
-5.746095
-6.6781654
-6.1012754
-4.83845
-5.7332306
-5.0461845
-4.2864504
-3.536796
-2.804437
-2.1109087
-1.5390825
-1.2940936
-1.5390825
-2.1109087
-2.804437
-3.536797
-4.286452
-5.0667343
-6.1623583
-6.00494
-4.2363386
-4.9747267
-4.286451
-3.5367956
-2.8040419
-2.1024575
-1.4645398
-0.9654448
-0.756662
-0.9654448
-1.4645395
-2.1024578
-2.8040419
-3.536796
-4.3146567
-5.5639877
-5.838122
-3.638391
-4.222806
-3.536796
-2.8040416
-2.1024575
-1.4638431
-0.9504144
-0.6362004
-0.5392177
-0.6362004
-0.9504144
-1.4638431
-2.102458
-2.8040404
-3.5726175
-4.971174
-5.672669
-3.0560539
-3.4851837
-2.8044367
-2.1024573
-1.4638429
-0.95041454
-0.6350293
-0.5156468
-0.4936993
-0.51564693
-0.6350293
-0.95041454
-1.4638431
-2.1024578
-2.84766
-4.3877735
-5.509551
-2.5364623
-2.797824
-2.110909
-1.4645395
-0.95041454
-0.6350292
-0.5156467
-0.4913814
-0.4889592
-0.4913814
-0.5156467
-0.6350292
-0.95041466
-1.4645393
-2.1606004
-3.8348765
-5.3554688
-2.165739
-2.2667687
-1.5395403
-0.9682096
-0.64246047
-0.523366
-0.49924564
-0.49667823
-0.49653304
-0.49667823
-0.49924564
-0.523366
-0.6424606
-0.96820974
-1.5936844
-3.3962622
-5.23602
-2.0297594
-2.059065
-1.3064449
-0.81409824
-0.65426946
-0.63019216
-0.62801945
-0.6278744
-0.62787426
-0.6278744
-0.62801945
-0.63019216
-0.65426946
-0.81409824
-1.3621826
-3.2216282
-5.189933
-2.2017634
-2.324913
-1.6652548
-1.2894757
-1.2034442
-1.1990595
-1.1990592
-1.1990592
-1.1990595
-1.1990592
-1.1990592
-1.1990595
-1.2034441
-1.2894756
-1.7193992
-3.4452076
-5.247042
-3.2394936
-3.8210645
-3.4026427
-3.1716223
-3.1229908
-3.12092
-3.12092
-3.12092
-3.1209197
-3.12092
-3.12092
-3.12092
-3.1229913
-3.1716216
-3.4431357
-4.662196
-5.5259295
-4.148065
-5.2967305
-5.2359266
-5.1774163
-5.165392
-5.1649017
-5.1649013
-5.164901
-5.164901
-5.1649013
-5.164901
-5.1649017
-5.1653914
-5.1774163
-5.246553
-5.5259295
-4.771095
-4.4020433
-5.293326
-4.752151
-4.139183
-3.5273361
-2.9270487
-2.3858833
-1.994937
-1.8501291
-1.994937
-2.3858833
-2.9270487
-3.5273366
-4.139183
-4.7585397
-5.428533
-4.769577
-5.293326
-6.303828
-5.613941
-4.8388457
-4.065101
-3.297777
-2.5701973
-1.9935498
-1.7612507
-1.9935501
-2.5701976
-3.297777
-4.0651016
-4.838846
-5.6277432
-6.5925517
-6.0781593
-4.752151
-5.6139417
-4.909267
-4.1275773
-3.3478255
-2.571945
-1.8118684
-1.1450912
-0.8355752
-1.1450912
-1.8118684
-2.571945
-3.3478253
-4.1275773
-4.9308534
-6.0652037
-5.9788127
-4.1391845
-4.8388467
-4.127578
-3.3478246
-2.5715196
-1.8022168
-1.0514568
-0.37925196
-0.048388243
-0.37925184
-1.0514568
-1.8022168
-2.5715196
-3.3478246
-4.1569457
-5.4529138
-5.808398
-3.5273361
-4.0651016
-3.3478255
-2.5715184
-1.8022168
-1.0505596
-0.356009
0.17627168
0.38827968
0.17627165
-0.35600895
-1.0505596
-1.8022168
-2.5715194
-3.3849678
-4.841656
-5.6382327
-2.9270487
-3.2977777
-2.571945
-1.8022163
-1.0505596
-0.3560092
0.18016386
0.4699874
0.5578592
0.4699874
0.18016386
-0.35600924
-1.05056
-1.8022163
-2.616691
-4.232807
-5.4687285
-2.385883
-2.570198
-1.8118689
-1.0518073
-0.35745764
0.1777646
0.46748483
0.5791139
0.60614103
0.5791139
0.46748483
0.17776456
-0.35745788
-1.0518075
-1.863312
-3.644484
-5.3061013
-1.994937
-1.9935505
-1.1460757
-0.39091063
0.13642317
0.4105053
0.5165607
0.5463264
0.55129254
0.5463264
0.5165607
0.41050526
0.13642311
-0.39091098
-1.2021691
-3.1643622
-5.177532
-1.8501298
-1.7621479
-0.8535551
-0.15590632
0.11172199
0.17750087
0.19714266
0.20130008
0.2015906
0.20130008
0.19714266
0.1775009
0.11172181
-0.1559068
-0.9113214
-2.967684
-5.127115
-2.032237
-2.0546472
-1.2912563
-0.81330717
-0.6948894
-0.68728304
-0.68653774
-0.68639266
-0.68639266
-0.68639266
-0.68653774
-0.68728304
-0.6948894
-0.81330717
-1.3473495
-3.21594
-5.188957
-3.116626
-3.6352897
-3.1716223
-2.9096632
-2.8531365
-2.850745
-2.850745
-2.8507452
-2.850745
-2.8507452
-2.850745
-2.850745
-2.853137
-2.9096627
-3.213547
-4.50668
-5.485311
-4.1151104
-5.247931
-5.1774173
-5.1132183
-5.099865
-5.0993233
-5.0993233
-5.0993247
-5.0993233
-5.099324
-5.0993233
-5.0993233
-5.099866
-5.1132207
-5.188416
-5.485312
-4.760382
-4.391084
-5.278381
-4.7353683
-4.120225
-3.505556
-2.901557
-2.3558135
-1.9604514
-1.8136697
-1.9604514
-2.3558137
-2.901557
-3.5055566
-4.1202254
-4.741878
-5.416418
-4.76631
-5.278381
-6.2833166
-5.5906773
-4.812223
-4.033978
-3.2603548
-2.523849
-1.9364271
-1.6981497
-1.9364271
-2.523849
-3.2603548
-4.0339785
-4.8122234
-5.6046433
-6.57589
-6.073677
-4.7353683
-5.5906773
-4.8824606
-4.096246
-3.3101153
-2.5245566
-1.7483776
-1.0550263
-0.72496283
-1.0550263
-1.7483776
-2.5245569
-3.310116
-4.0962462
-4.9042306
-6.046245
-5.973736
-4.120226
-4.812224
-4.0962462
-3.3101144
-2.5241246
-1.7384198
-0.95504475
-0.21081066
0.19058421
-0.21081072
-0.95504475
-1.7384198
-2.5241249
-3.3101149
-4.12582
-5.431131
-5.802597
-3.505556
-4.033978
-3.3101153
-2.5241241
-1.7384198
-0.9540912
-0.181315
0.52485186
0.88979936
0.52485186
-0.181315
-0.9540912
-1.73842
-2.5241246
-3.3474941
-4.8160563
-5.6314697
-2.901557
-3.2603552
-2.5245569
-1.7384193
-0.9540913
-0.18152052
0.5340452
1.1020238
1.3568135
1.1020238
0.5340452
-0.18152052
-0.95409155
-1.73842
-2.5695765
-4.201781
-5.460625
-2.3558135
-2.5238492
-1.7483776
-0.95634806
-0.18711203
0.5210621
1.0757623
1.4232025
1.5526004
1.4232025
1.0757623
0.5210621
-0.18711233
-0.9563482
-1.8001382
-3.6055331
-5.296141
-1.9604514
-1.9364271
-1.057015
-0.24359143
0.39730048
0.8837234
1.1720579
1.2870754
1.317526
1.2870754
1.1720579
0.8837234
0.3973004
-0.24359179
-1.1134638
-3.115504
-5.165511
-1.8136699
-1.6991034
-0.74694455
0.016498923
0.33695167
0.47017714
0.53417665
0.5500891
0.55187327
0.5500891
0.53417665
0.47017714
0.33695167
0.016498566
-0.8050828
-2.9132595
-5.114086
-1.997982
-1.9981472
-1.2075703
-0.6992897
-0.5700041
-0.5587419
-0.5559709
-0.555431
-0.555431
-0.555431
-0.5559709
-0.5587419
-0.5700041
-0.6992897
-1.2640193
-3.1676476
-5.1770096
-3.0920153
-3.5973363
-3.1229908
-2.853137
-2.7945309
-2.7920609
-2.7920604
-2.7920606
-2.7920604
-2.7920606
-2.7920606
-2.7920606
-2.794531
-2.853136
-3.165176
-4.474753
-5.4770803
-4.1085534
-5.238079
-5.1653914
-5.0998635
-5.0861955
-5.085643
-5.085643
-5.0856433
-5.0856423
-5.0856433
-5.0856423
-5.085643
-5.086196
-5.0998654
-5.1764574
-5.4770813
-4.758231
-4.3906217
-5.277748
-4.7346625
-4.119427
-3.50464
-2.9004831
-2.354545
-1.9589939
-1.81213
-1.9589939
-2.354545
-2.9004831
-3.5046396
-4.1194277
-4.7411723
-5.415907
-4.7661767
-5.277748
-6.282446
-5.589696
-4.8110995
-4.032665
-3.2587743
-2.5218837
-1.9339952
-1.6954648
-1.9339952
-2.5218837
-3.2587743
-4.0326653
-4.8111
-5.603662
-6.5751843
-6.0734935
-4.7346625
-5.589696
-4.881337
-4.0949326
-3.3085337
-2.5225651
-1.7456963
-1.0508107
-0.7192457
-1.0508107
-1.7456963
-2.5225654
-3.3085344
-4.094933
-4.9031067
-6.0454473
-5.973529
-4.119428
-4.8111005
-4.094933
-3.3085327
-2.5221329
-1.7357333
-0.9502846
-0.19524616
0.22156015
-0.19524616
-0.9502846
-1.7357333
-2.5221334
-3.3085332
-4.124507
-5.4302144
-5.802361
-3.5046396
-4.032665
-3.3085337
-2.5221326
-1.7357333
-0.94933116
-0.16369236
0.5989017
1.0305692
0.5989017
-0.16369236
-0.94933116
-1.7357335
-2.522133
-3.3459125
-4.814979
-5.6311946
-2.9004831
-3.2587748
-2.5225654
-1.7357328
-0.94933116
-0.16445607
0.60993844
1.3337739
1.724432
1.3337739
0.60993844
-0.16445607
-0.9493314
-1.7357335
-2.567585
-4.2004733
-5.4602957
-2.3545449
-2.521884
-1.7456963
-0.9519385
-0.17205441
0.5824076
1.2532375
1.7990721
2.0694184
1.7990721
1.2532375
0.5824076
-0.17205471
-0.9519386
-1.797457
-3.6038852
-5.2957354
-1.9589939
-1.9339952
-1.0531499
-0.23612183
0.4275362
0.9830564
1.3465209
1.5317378
1.6044574
1.5317378
1.3465209
0.9830564
0.42753607
-0.23612219
-1.1095988
-3.1134279
-5.165021
-1.8121302
-1.6964185
-0.74223137
0.02469039
0.35391554
0.5097864
0.59041095
0.6126424
0.61663157
0.6126424
0.59041095
0.5097864
0.3539155
0.024690032
-0.80036974
-2.9109464
-5.1135564
-1.9965246
-1.9957206
-1.2038993
-0.6941962
-0.5641284
-0.5517682
-0.54825187
-0.5475668
-0.5475668
-0.5475668
-0.54825187
-0.5517682
-0.5641284
-0.69419634
-1.2603482
-3.1655767
-5.1765194
-3.090972
-3.5957146
-3.12092
-2.8507452
-2.7920606
-2.7895901
-2.7895901
-2.7895901
-2.78959
-2.7895901
-2.78959
-2.7895901
-2.7920606
-2.8507442
-3.163105
-4.4733906
-5.476743
-4.1082854
-5.2376747
-5.1649013
-5.0993223
-5.085643
-5.08509
-5.0850897
-5.0850906
-5.0850897
-5.0850906
-5.08509
-5.08509
-5.085644
-5.099324
-5.175967
-5.476744
-4.7581463
-4.3906217
-5.277748
-4.7346625
-4.119427
-3.50464
-2.9004831
-2.354545
-1.9589939
-1.81213
-1.9589939
-2.3545449
-2.9004831
-3.5046396
-4.1194277
-4.7411723
-5.4159064
-4.7661767
-5.277748
-6.282446
-5.589696
-4.8110995
-4.032665
-3.2587743
-2.5218837
-1.933995
-1.6954648
-1.9339952
-2.5218837
-3.2587743
-4.0326653
-4.8111
-5.603662
-6.5751843
-6.0734935
-4.7346625
-5.589696
-4.881337
-4.0949326
-3.3085337
-2.5225654
-1.7456963
-1.0508107
-0.71924555
-1.0508107
-1.7456963
-2.5225654
-3.3085344
-4.094933
-4.903107
-6.0454473
-5.973529
-4.119428
-4.8111005
-4.094933
-3.3085327
-2.522133
-1.7357333
-0.9502845
-0.19524616
0.22156015
-0.19524616
-0.9502846
-1.7357333
-2.5221334
-3.3085332
-4.124507
-5.4302144
-5.802361
-3.5046396
-4.032665
-3.3085337
-2.5221324
-1.7357333
-0.94933116
-0.16369236
0.5989017
1.0305692
0.5989017
-0.16369236
-0.94933116
-1.7357335
-2.522133
-3.3459125
-4.814979
-5.6311946
-2.9004831
-3.2587748
-2.5225651
-1.7357328
-0.94933116
-0.16445613
0.60993844
1.3337739
1.724432
1.3337739
0.60993844
-0.16445607
-0.9493314
-1.7357335
-2.5675848
-4.2004733
-5.4602957
-2.3545449
-2.521884
-1.7456963
-0.9519385
-0.17205441
0.5824076
1.2532375
1.7990721
2.0694184
1.7990721
1.2532375
0.5824076
-0.17205471
-0.95193875
-1.797457
-3.6038852
-5.2957354
-1.9589939
-1.9339952
-1.0531499
-0.23612183
0.4275362
0.9830564
1.3465209
1.5317378
1.6044574
1.5317378
1.3465209
0.9830564
0.42753607
-0.23612219
-1.1095988
-3.1134276
-5.1650205
-1.8121302
-1.6964185
-0.7422315
0.02469039
0.35391554
0.5097864
0.59041095
0.6126424
0.61663157
0.6126424
0.59041095
0.5097864
0.3539155
0.024690032
-0.80036974
-2.9109464
-5.1135564
-1.9965246
-1.9957206
-1.2038993
-0.6941962
-0.5641284
-0.5517682
-0.54825187
-0.5475668
-0.5475668
-0.5475668
-0.54825187
-0.5517682
-0.5641284
-0.6941962
-1.2603482
-3.1655767
-5.1765194
-3.090972
-3.5957146
-3.12092
-2.8507452
-2.7920604
-2.7895901
-2.7895901
-2.7895901
-2.78959
-2.7895901
-2.78959
-2.7895901
-2.7920606
-2.8507442
-3.163105
-4.4733906
-5.476743
-4.1082854
-5.2376747
-5.1649013
-5.0993223
-5.085643
-5.08509
-5.08509
-5.0850906
-5.0850897
-5.0850906
-5.08509
-5.08509
-5.0856433
-5.099324
-5.175967
-5.476744
-4.7581463
-4.391085
-5.278381
-4.7353683
-4.1202245
-3.505557
-2.9015567
-2.355814
-1.9604514
-1.8136694
-1.9604514
-2.3558137
-2.9015567
-3.5055566
-4.120225
-4.741878
-5.4164186
-4.7663107
-5.278381
-6.2833176
-5.590677
-4.812223
-4.0339785
-3.2603552
-2.5238485
-1.9364271
-1.6981492
-1.9364271
-2.5238485
-3.2603552
-4.033979
-4.812224
-5.6046424
-6.5758905
-6.073677
-4.7353683
-5.590677
-4.8824606
-4.0962462
-3.3101156
-2.5245562
-1.7483773
-1.0550262
-0.72496283
-1.0550262
-1.7483773
-2.5245562
-3.3101153
-4.096247
-4.9042306
-6.046245
-5.973736
-4.1202254
-4.812224
-4.096247
-3.3101144
-2.5241241
-1.7384198
-0.95504475
-0.21081078
0.19058427
-0.21081078
-0.95504475
-1.7384198
-2.5241244
-3.310115
-4.1258206
-5.431132
-5.802598
-3.5055566
-4.0339785
-3.3101156
-2.5241232
-1.73842
-0.9540913
-0.181315
0.5248519
0.8897994
0.5248519
-0.181315
-0.9540913
-1.73842
-2.5241237
-3.3474946
-4.816057
-5.63147
-2.9015567
-3.2603557
-2.5245562
-1.7384193
-0.9540914
-0.18152058
0.5340453
1.1020238
1.3568137
1.1020238
0.5340453
-0.18152058
-0.95409167
-1.73842
-2.5695755
-4.2017813
-5.4606256
-2.355814
-2.523849
-1.7483776
-0.95634806
-0.18711215
0.5210622
1.0757624
1.4232028
1.5526004
1.4232028
1.0757624
0.5210622
-0.18711233
-0.9563483
-1.8001385
-3.6055326
-5.296141
-1.9604514
-1.9364274
-1.0570148
-0.24359137
0.39730054
0.8837234
1.1720579
1.2870755
1.3175261
1.2870755
1.1720579
0.8837234
0.3973004
-0.24359173
-1.1134638
-3.1155043
-5.16551
-1.8136697
-1.6991036
-0.74694467
0.016498923
0.3369517
0.47017717
0.5341767
0.5500892
0.5518733
0.5500892
0.5341767
0.47017717
0.33695164
0.016498566
-0.8050828
-2.9132597
-5.1140876
-1.9979818
-1.9981475
-1.2075702
-0.6992898
-0.5700041
-0.55874205
-0.5559709
-0.555431
-0.555431
-0.555431
-0.5559709
-0.55874205
-0.5700041
-0.6992899
-1.2640191
-3.1676478
-5.1770086
-3.0920157
-3.5973358
-3.122991
-2.8531368
-2.794531
-2.7920609
-2.7920606
-2.7920606
-2.7920604
-2.7920606
-2.7920606
-2.7920606
-2.7945313
-2.8531363
-3.1651762
-4.4747524
-5.477081
-4.108554
-5.2380786
-5.165391
-5.099864
-5.0861964
-5.0856433
-5.085643
-5.0856433
-5.085643
-5.085643
-5.085643
-5.0856433
-5.086196
-5.0998654
-5.176457
-5.4770813
-4.758231
-4.4020433
-5.293326
-4.752151
-4.139183
-3.5273361
-2.9270487
-2.385883
-1.994937
-1.8501294
-1.994937
-2.385883
-2.9270487
-3.5273366
-4.139183
-4.7585397
-5.4285336
-4.769577
-5.293326
-6.303828
-5.613941
-4.8388457
-4.065101
-3.297777
-2.5701973
-1.9935498
-1.7612507
-1.9935498
-2.5701973
-3.297777
-4.0651016
-4.838846
-5.627743
-6.5925517
-6.0781593
-4.752151
-5.6139417
-4.909267
-4.1275773
-3.3478255
-2.571945
-1.8118684
-1.1450912
-0.8355752
-1.1450912
-1.8118684
-2.571945
-3.3478253
-4.127578
-4.9308534
-6.0652037
-5.9788127
-4.1391845
-4.838847
-4.1275783
-3.3478246
-2.5715196
-1.8022165
-1.0514568
-0.37925184
-0.048388243
-0.37925196
-1.0514568
-1.8022165
-2.5715196
-3.3478246
-4.156945
-5.452914
-5.808398
-3.5273366
-4.0651016
-3.3478255
-2.5715187
-1.8022168
-1.0505598
-0.356009
0.17627162
0.38827968
0.17627165
-0.356009
-1.0505598
-1.8022168
-2.5715191
-3.3849678
-4.841656
-5.6382327
-2.9270487
-3.2977777
-2.571945
-1.8022163
-1.0505598
-0.3560092
0.18016386
0.4699874
0.5578592
0.4699874
0.18016386
-0.35600924
-1.05056
-1.8022163
-2.6166909
-4.232807
-5.4687285
-2.385883
-2.5701978
-1.8118687
-1.0518073
-0.3574577
0.1777646
0.46748483
0.5791139
0.60614103
0.5791139
0.46748483
0.17776456
-0.35745788
-1.0518076
-1.863312
-3.644484
-5.3061013
-1.994937
-1.9935505
-1.1460757
-0.3909105
0.13642323
0.4105053
0.5165607
0.5463264
0.55129254
0.5463264
0.5165607
0.4105053
0.13642311
-0.39091098
-1.202169
-3.1643624
-5.177532
-1.8501298
-1.7621479
-0.85355496
-0.15590626
0.11172199
0.1775009
0.19714266
0.20130008
0.2015906
0.20130008
0.19714266
0.1775009
0.11172181
-0.1559068
-0.9113214
-2.967684
-5.127115
-2.032237
-2.0546472
-1.2912563
-0.81330705
-0.6948893
-0.68728304
-0.68653786
-0.68639266
-0.68639266
-0.68639266
-0.68653786
-0.68728304
-0.69488955
-0.81330705
-1.3473495
-3.2159402
-5.188957
-3.116626
-3.6352897
-3.1716223
-2.9096634
-2.8531365
-2.850745
-2.850745
-2.8507452
-2.850745
-2.8507452
-2.850745
-2.8507452
-2.853137
-2.9096627
-3.2135472
-4.50668
-5.485311
-4.1151104
-5.247931
-5.1774178
-5.1132183
-5.099865
-5.0993233
-5.0993233
-5.099324
-5.0993233
-5.099324
-5.0993233
-5.0993233
-5.099866
-5.1132207
-5.188416
-5.4853125
-4.760382
-4.4609914
-5.37749
-4.8512177
-4.254558
-3.6618938
-3.0845385
-2.5692022
-2.201368
-2.0664093
-2.201368
-2.5692022
-3.0845385
-3.6618943
-4.2545595
-4.85692
-5.4977865
-4.7879915
-5.377489
-6.4235506
-5.754489
-5.002743
-4.2573113
-3.525773
-2.84374
-2.3164942
-2.1094944
-2.3164945
-2.84374
-3.5257726
-4.257312
-5.0027432
-5.767352
-6.690933
-6.104312
-4.8512177
-5.7544875
-5.074201
-4.3209558
-3.5774126
-2.8506336
-2.1619034
-1.59357
-1.349911
-1.59357
-2.1619034
-2.8506336
-3.5774126
-4.320957
-5.0947504
-6.1805787
-6.009454
-4.254559
-5.0027432
-4.3209567
-3.5774117
-2.8502383
-2.1534858
-1.5193691
-1.0227329
-0.8148055
-1.0227329
-1.5193691
-2.1534858
-2.8502386
-3.5774121
-4.349162
-5.5874906
-5.844072
-3.6618938
-4.2573113
-3.5774126
-2.8502383
-2.1534855
-1.518673
-1.0077422
-0.6947197
-0.59803414
-0.6947197
-1.0077422
-1.518673
-2.1534863
-2.8502371
-3.6132336
-4.999729
-5.6799984
-3.0845387
-3.5257735
-2.8506334
-2.1534853
-1.5186727
-1.0077423
-0.69354856
-0.57450414
-0.5525973
-0.574504
-0.69354856
-1.0077423
-1.5186727
-2.1534855
-2.8938568
-4.4210596
-5.5181823
-2.5692022
-2.8437405
-2.1619036
-1.5193689
-1.0077423
-0.69354844
-0.5745039
-0.5502794
-0.54785717
-0.5502794
-0.5745039
-0.69354844
-1.0077425
-1.5193689
-2.211595
-3.8723493
-5.365258
-2.201368
-2.3164947
-1.5940278
-1.0254977
-0.7009797
-0.5822232
-0.5581436
-0.5555762
-0.555431
-0.5555762
-0.5581436
-0.5822232
-0.7009798
-1.0254978
-1.6481719
-3.4367895
-5.2466464
-2.0664096
-2.110192
-1.3622226
-0.8720534
-0.712747
-0.68871045
-0.68653774
-0.68639266
-0.68639266
-0.68639266
-0.68653786
-0.68871045
-0.7127471
-0.8720534
-1.4179614
-3.263294
-5.2008634
-2.2373924
-2.3746057
-1.7194002
-1.3455695
-1.2598939
-1.2555091
-1.2555089
-1.2555089
-1.2555091
-1.2555089
-1.2555089
-1.2555091
-1.2598937
-1.3455694
-1.7735445
-3.4857006
-5.257668
-3.2661674
-3.8582568
-3.4431367
-3.2135482
-3.1651769
-3.163106
-3.163106
-3.163106
-3.1631057
-3.163106
-3.163106
-3.163106
-3.1651773
-3.2135475
-3.4836297
-4.692504
-5.5338855
-4.155067
-5.3064938
-5.2465525
-5.188415
-5.1764574
-5.175967
-5.1759663
-5.1759667
-5.1759667
-5.1759663
-5.1759663
-5.175967
-5.176457
-5.1884146
-5.257179
-5.533886
-4.7731833
-4.589633
-5.6368814
-5.246345
-4.7865243
-4.3330016
-3.8956327
-3.5106254
-3.2402549
-3.1422787
-3.2402549
-3.5106254
-3.8956327
-4.3330016
-4.7865243
-5.2500534
-5.715953
-4.804574
-5.636881
-6.874967
-6.3805504
-5.804212
-5.238152
-4.690665
-4.191465
-3.8170195
-3.6740355
-3.8170195
-4.191465
-4.690665
-5.2381516
-5.804212
-6.3896227
-7.0645666
-6.1522655
-5.246345
-6.3805523
-5.881207
-5.309137
-4.752601
-4.2212048
-3.7367892
-3.3599665
-3.2085798
-3.3599665
-3.7367892
-4.2212048
-4.752601
-5.3091383
-5.8962193
-6.6930447
-6.0957913
-4.786525
-5.804213
-5.3091373
-4.752601
-4.220924
-3.7311244
-3.3140588
-3.0197983
-2.9102075
-3.0197985
-3.3140588
-3.7311244
-4.2209234
-4.7526007
-5.330043
-6.239207
-5.9689636
-4.3330016
-5.238152
-4.7526007
-4.2209225
-3.7311249
-3.3136446
-3.011734
-2.8518136
-2.8081279
-2.8518136
-3.0117338
-3.3136446
-3.7311249
-4.220924
-4.779332
-5.79413
-5.8443055
-3.8956327
-4.6906667
-4.2212048
-3.731124
-3.3136444
-3.0117338
-2.8512897
-2.7988954
-2.7906907
-2.7988954
-2.8512895
-3.011734
-3.313645
-3.7311244
-4.2535467
-5.3629465
-5.723082
-3.5106263
-4.1914663
-3.7367892
-3.3140588
-3.0117335
-2.8512895
-2.7988944
-2.7901404
-2.7895901
-2.7901406
-2.7988944
-2.8512897
-3.011734
-3.314059
-3.773982
-4.964097
-5.610857
-3.240255
-3.8170204
-3.3602152
-3.0209978
-2.8540087
-2.8013659
-2.792611
-2.7920606
-2.7920604
-2.7920606
-2.792611
-2.8013659
-2.8540092
-3.0209973
-3.4007077
-4.6578927
-5.5259852
-3.1422799
-3.6744504
-3.2154522
-2.9393947
-2.8611703
-2.8512952
-2.850745
-2.8507452
-2.8507447
-2.8507452
-2.850745
-2.8512952
-2.861171
-2.939394
-3.257117
-4.539555
-5.4938793
-3.2672107
-3.8598785
-3.4449587
-3.2147403
-3.165452
-3.163106
-3.163106
-3.163106
-3.1631057
-3.163106
-3.163106
-3.163106
-3.1654525
-3.2147396
-3.4854517
-4.693866
-5.5342226
-4.0160446
-4.928971
-4.6621957
-4.506679
-4.4747515
-4.47339
-4.4733896
-4.4733896
-4.47339
-4.4733896
-4.4733896
-4.47339
-4.4747524
-4.50668
-4.692503
-5.5556006
-5.719405
-4.3214564
-5.548577
-5.5259295
-5.48531
-5.4770803
-5.476743
-5.4767427
-5.4767437
-5.476743
-5.4767437
-5.4767427
-5.476743
-5.4770813
-5.485312
-5.533886
-5.7194057
-4.785818
-3.7100363
-4.767409
-4.6968265
-4.5701737
-4.4456177
-4.3259935
-4.221289
-4.1482596
-4.1219335
-4.1482596
-4.221289
-4.325993
-4.4456177
-4.570174
-4.6977277
-4.7876015
-3.7649264
-4.7674084
-6.081473
-5.992492
-5.8340707
-5.679089
-5.530085
-5.395452
-5.2956786
-5.2579856
-5.295679
-5.395452
-5.530085
-5.6790895
-5.834071
-5.994801
-6.131803
-4.9042196
-4.6968265
-5.992492
-5.9026847
-5.7461047
-5.594695
-5.4515104
-5.3229785
-5.2251306
-5.186621
-5.2251306
-5.3229785
-5.4515104
-5.5946946
-5.746105
-5.90658
-6.0767565
-4.925881
-4.570174
-5.834074
-5.7461057
-5.5946927
-5.4514375
-5.3215237
-5.2135677
-5.1398597
-5.1132374
-5.1398597
-5.213568
-5.3215237
-5.4514384
-5.594695
-5.751567
-5.9521203
-4.8910584
-4.4456177
-5.6790895
-5.594694
-5.451437
-5.321523
-5.213469
-5.137933
-5.0994606
-5.0892663
-5.0994606
-5.137933
-5.213469
-5.321524
-5.451438
-5.6017003
-5.8304152
-4.8569636
-4.3259935
-5.5300865
-5.45151
-5.3215227
-5.213469
-5.1379337
-5.099342
-5.0871835
-5.08533
-5.0871835
-5.099342
-5.1379337
-5.2134695
-5.3215237
-5.459999
-5.7132936
-4.824001
-4.2212896
-5.3954535
-5.3229785
-5.2135677
-5.137933
-5.0993423
-5.0871825
-5.085211
-5.0850897
-5.085211
-5.087183
-5.0993423
-5.137934
-5.2135687
-5.3327436
-5.6060476
-4.793745
-4.14826
-5.295679
-5.2251873
-5.1401305
-5.0999537
-5.087736
-5.0857635
-5.0856433
-5.085643
-5.0856433
-5.085763
-5.087736
-5.099953
-5.140131
-5.2358136
-5.5248113
-4.7711067
-4.121934
-5.2580867
-5.188277
-5.1201754
-5.101677
-5.0994434
-5.0993233
-5.0993247
-5.0993233
-5.099324
-5.0993233
-5.0994434
-5.101678
-5.1201777
-5.199208
-5.4937806
-4.762617
-4.155335
-5.306898
-5.246985
-5.188684
-5.1765175
-5.175967
-5.1759663
-5.1759663
-5.1759663
-5.1759667
-5.1759663
-5.175967
-5.176517
-5.188684
-5.2576113
-5.534223
-4.773268
-4.3214564
-5.548577
-5.5259295
-5.4853106
-5.477081
-5.476743
-5.4767427
-5.4767437
-5.476743
-5.4767437
-5.476743
-5.476743
-5.477081
-5.485312
-5.533886
-5.7194057
-4.785818
-3.6324844
-4.7393064
-4.7710943
-4.7603817
-4.7582316
-4.7581463
-4.7581463
-4.7581463
-4.7581463
-4.7581463
-4.7581463
-4.7581463
-4.7582316
-4.760382
-4.7731833
-4.7858186
-3.7589173
