# vtk DataFile Version 1.0
Texture map for thresholding data (use boolean textures for 2D map)
ASCII

DATASET STRUCTURED_POINTS
DIMENSIONS 27 17 17
SPACING 0.1 0.1 0.1
ORIGIN -1.3 -0.8 -0.8

POINT_DATA 7803
SCALARS distance float 1
LOOKUP_TABLE default
-2.7717295
-3.3983495
-3.2079341
-2.9771614
-2.7479665
-2.5207467
-2.2960422
-2.0746002
-1.8574722
-1.6463194
-1.4464977
-1.2747366
-1.1571443
-1.1152811
-1.1571443
-1.2747364
-1.4464977
-1.6463194
-1.8574722
-2.0746
-2.2960417
-2.5207465
-2.7479665
-2.9771612
-3.208765
-3.416843
-2.8219981
-3.3983517
-4.1474214
-3.9055912
-3.615009
-3.3267934
-3.0415788
-2.7602422
-2.4840121
-2.2146585
-1.9548304
-1.7097194
-1.4935954
-1.337662
-1.2798855
-1.3376617
-1.4935951
-1.7097197
-1.9548304
-2.2146585
-2.4840114
-2.7602422
-3.0415788
-3.326793
-3.6150088
-3.9088218
-4.21549
-3.5833845
-3.2079372
-3.9055936
-3.659709
-3.3685396
-3.080392
-2.7961452
-2.5170343
-2.244838
-1.9821663
-1.732929
-1.5031335
-1.3034213
-1.156616
-1.1002841
-1.1566155
-1.303421
-1.5031335
-1.732929
-1.9821663
-2.2448385
-2.5170336
-2.7961452
-3.0803916
-3.3685396
-3.665909
-4.0347867
-3.559122
-2.9771638
-3.6150105
-3.3685384
-3.0803907
-2.796145
-2.5170333
-2.2448382
-1.9821663
-1.7329285
-1.503016
-1.301182
-1.1396675
-1.0333285
-0.9958524
-1.0333283
-1.1396673
-1.301182
-1.503016
-1.7329283
-1.9821658
-2.2448382
-2.5170333
-2.7961442
-3.0803907
-3.3776915
-3.8055885
-3.4952145
-2.7479682
-3.3267941
-3.0803912
-2.796145
-2.5170336
-2.2448385
-1.9821665
-1.7329288
-1.5030158
-1.301182
-1.1395195
-1.0306008
-0.97671
-0.9626679
-0.9767094
-1.0306005
-1.139519
-1.301182
-1.5030158
-1.7329285
-1.9821663
-2.2448387
-2.5170333
-2.7961447
-3.0924785
-3.57837
-3.4318242
-2.5207481
-3.04158
-2.7961442
-2.517033
-2.2448382
-1.9821665
-1.7329288
-1.503016
-1.301182
-1.1395187
-1.0306008
-0.97654206
-0.9597898
-0.95724493
-0.9597897
-0.9765416
-1.0306005
-1.1395187
-1.301182
-1.5030158
-1.7329288
-1.9821665
-2.2448378
-2.517033
-2.811142
-3.353665
-3.3690875
-2.2960434
-2.760243
-2.5170326
-2.2448373
-1.9821663
-1.7329288
-1.5030155
-1.3011823
-1.1395185
-1.0306008
-0.97654206
-0.9597898
-0.9570742
-0.9569035
-0.9570741
-0.9597896
-0.9765416
-1.0306008
-1.1395185
-1.301182
-1.5030158
-1.7329288
-1.9821656
-2.2448373
-2.5349116
-3.1322224
-3.3071928
-2.0746014
-2.4840128
-2.2448373
-1.982166
-1.7329288
-1.5030162
-1.3011823
-1.1395192
-1.0306003
-0.97654206
-0.9597898
-0.957074
-0.9569035
-0.9569035
-0.9569033
-0.9570741
-0.9597897
-0.97654206
-1.0306003
-1.1395187
-1.3011823
-1.5030162
-1.7329288
-1.982166
-2.265558
-2.9150946
-3.2464068
-1.8574734
-2.2146592
-1.9821658
-1.7329285
-1.503016
-1.3011823
-1.1395187
-1.030601
-0.9765422
-0.95978993
-0.95707446
-0.9569035
-0.95690364
-0.95690364
-0.9569034
-0.9569034
-0.95707434
-0.95978993
-0.9765422
-1.0306008
-1.1395187
-1.3011823
-1.503016
-1.7329285
-2.0056787
-2.7038028
-3.1871073
-1.6463206
-1.9548306
-1.7329278
-1.5030153
-1.301182
-1.1395187
-1.0306008
-0.9765422
-0.9597897
-0.95707434
-0.9569035
-0.95690364
-0.95690364
-0.9569035
-0.9569035
-0.9569034
-0.95690364
-0.95707434
-0.9597897
-0.9765418
-1.0306008
-1.1395187
-1.3011818
-1.5030153
-1.7591646
-2.5005898
-3.1298535
-1.4464989
-1.7097201
-1.5031328
-1.3011818
-1.1395187
-1.0306005
-0.9765422
-0.9597898
-0.9570741
-0.9569035
-0.9569035
-0.9569033
-0.9569034
-0.9569035
-0.9569033
-0.9569034
-0.9569033
-0.9569035
-0.9570741
-0.9597896
-0.9765416
-1.0306005
-1.1395187
-1.3011818
-1.53195
-2.3090096
-3.0755415
-1.2747378
-1.4935961
-1.3034208
-1.1396673
-1.0306005
-0.97654194
-0.9597898
-0.9570742
-0.9569034
-0.9569035
-0.95690364
-0.9569034
-0.9569035
-0.95690364
-0.95690316
-0.95690304
-0.9569035
-0.9569035
-0.9569034
-0.957074
-0.9597897
-0.97654194
-1.0306003
-1.1396673
-1.3344235
-2.1381726
-3.0268836
-1.157145
-1.337662
-1.1566978
-1.0337203
-0.97741634
-0.9605817
-0.95786625
-0.95769554
-0.9576953
-0.95769554
-0.9576954
-0.9576953
-0.9576953
-0.9576954
-0.9576953
-0.9576954
-0.9576953
-0.95769554
-0.9576953
-0.9576954
-0.95786625
-0.9605817
-0.97741586
-1.0337203
-1.1891584
-2.0124412
-2.991391
-1.1152816
-1.280035
-1.1026223
-1.0054994
-0.9797923
-0.97669584
-0.97652525
-0.97652525
-0.9765251
-0.9765251
-0.97652537
-0.976525
-0.9765251
-0.97652525
-0.976525
-0.976525
-0.976525
-0.9765251
-0.9765251
-0.9765251
-0.9765251
-0.97669584
-0.9797923
-1.0054994
-1.1355934
-1.9654026
-2.9783092
-1.180515
-1.3709035
-1.2055266
-1.1204543
-1.1030118
-1.1021979
-1.1021979
-1.1021979
-1.1021979
-1.1021979
-1.1021979
-1.1021979
-1.1021979
-1.1021979
-1.1021979
-1.1021976
-1.1021976
-1.1021979
-1.1021979
-1.1021979
-1.1021979
-1.1021979
-1.1030116
-1.1204543
-1.2379873
-2.0395584
-2.9981139
-1.7382145
-2.123187
-2.0141575
-1.9527237
-1.9404185
-1.9398966
-1.9398966
-1.9398966
-1.9398966
-1.9398966
-1.9398966
-1.9398966
-1.9398966
-1.9398966
-1.9398966
-1.9398963
-1.9398966
-1.9398966
-1.9398966
-1.9398966
-1.9398968
-1.9398966
-1.9404185
-1.9527237
-2.0390368
-2.6373734
-3.1359217
-2.3487537
-2.9943507
-2.991374
-2.974897
-2.9716194
-2.9714854
-2.9714854
-2.9714854
-2.971485
-2.9714854
-2.971485
-2.971485
-2.971485
-2.971485
-2.971485
-2.971485
-2.971485
-2.9714854
-2.971485
-2.971485
-2.9714851
-2.9714854
-2.971619
-2.974897
-2.9979794
-3.135923
-2.7335868
-3.518128
-4.295304
-4.0494113
-3.7522378
-3.4562688
-3.1618185
-2.8693206
-2.579385
-2.2928944
-2.0113657
-1.741174
-1.5047431
-1.33973
-1.2801836
-1.3397298
-1.5047429
-1.7411737
-2.0113654
-2.2928944
-2.5793843
-2.8693204
-3.1618185
-3.4562685
-3.7522378
-4.0510826
-4.3312783
-3.6159172
-4.2953053
-5.2220783
-4.909172
-4.5342193
-4.16108
-3.7902672
-3.4224901
-3.0587792
-2.7006595
-2.3505511
-2.014044
-1.7097023
-1.4834659
-1.3976538
-1.4834657
-1.7097018
-2.0140448
-2.3505511
-2.7006595
-3.0587795
-3.4224896
-3.7902672
-4.161079
-4.5342197
-4.914092
-5.324877
-4.5747433
-4.0494156
-4.909176
-4.5900645
-4.2131133
-3.8385055
-3.4669492
-3.099483
-2.737639
-2.383773
-2.0416667
-1.7177694
-1.4257326
-1.2013116
-1.1119785
-1.2013118
-1.4257326
-1.7177689
-2.0416667
-2.383773
-2.737638
-3.0994833
-3.4669492
-3.8385046
-4.2131133
-4.5988064
-5.090617
-4.5426307
-3.7522404
-4.534221
-4.2131124
-3.8385036
-3.4669492
-3.099482
-2.7376375
-2.383773
-2.0416663
-1.7175975
-1.4223442
-1.1742496
-1.0015576
-0.937872
-1.0015574
-1.1742499
-1.4223437
-1.7175975
-2.0416663
-2.3837733
-2.737637
-3.099482
-3.4669487
-3.8385036
-4.225666
-4.7946486
-4.4601607
-3.4562714
-4.1610823
-3.838504
-3.4669483
-3.0994828
-2.7376382
-2.383774
-2.0416665
-1.717598
-1.4223442
-1.1740062
-0.99687594
-0.904167
-0.8790334
-0.90416723
-0.9968756
-1.1740062
-1.4223442
-1.717598
-2.0416667
-2.3837736
-2.7376382
-3.0994835
-3.4669483
-3.8548548
-4.5001993
-4.378092
-3.1618207
-3.7902672
-3.466948
-3.0994818
-2.737638
-2.383774
-2.0416663
-1.7175987
-1.4223442
-1.1740062
-0.9968758
-0.9038647
-0.87374145
-0.8690439
-0.8737411
-0.9038648
-0.9968756
-1.1740062
-1.4223442
-1.7175982
-2.0416667
-2.3837743
-2.737637
-3.0994818
-3.4870787
-4.2077007
-4.2965255
-2.8693225
-3.4224908
-3.0994823
-2.7376375
-2.383774
-2.0416665
-1.7175982
-1.422344
-1.174006
-0.99687546
-0.9038647
-0.8737413
-0.868728
-0.86841196
-0.86872774
-0.8737411
-0.9038649
-0.9968756
-1.174006
-1.422344
-1.7175982
-2.0416665
-2.3837736
-2.7376375
-3.1233683
-3.9177625
-4.2156205
-2.5793872
-3.0587804
-2.7376373
-2.383773
-2.0416663
-1.7175984
-1.4223447
-1.1740065
-0.9968758
-0.9038649
-0.8737413
-0.86872786
-0.8684121
-0.8684121
-0.86841196
-0.86872774
-0.8737413
-0.9038649
-0.9968758
-1.1740062
-1.4223447
-1.7175984
-2.041666
-2.3837733
-2.7652483
-3.6312745
-4.1355915
-2.292897
-2.7006605
-2.383773
-2.0416658
-1.7175982
-1.4223444
-1.1740065
-0.99687594
-0.9038648
-0.8737412
-0.868728
-0.8684121
-0.8684121
-0.86841196
-0.86841196
-0.86841184
-0.868728
-0.8737412
-0.9038648
-0.99687546
-1.1740062
-1.4223444
-1.7175977
-2.0416658
-2.4150693
-3.3495502
-4.056769
-2.0113666
-2.3505518
-2.041666
-1.7175977
-1.4223442
-1.1740062
-0.9968758
-0.9038649
-0.8737413
-0.868728
-0.8684121
-0.8684121
-0.8684122
-0.8684121
-0.8684121
-0.86841196
-0.8684121
-0.868728
-0.8737413
-0.90386504
-0.9968757
-1.1740062
-1.422344
-1.7175977
-2.076593
-3.0746403
-3.9796479
-1.7411754
-2.0140448
-1.7177682
-1.4223442
-1.1740065
-0.9968757
-0.9038649
-0.8737413
-0.86872786
-0.86841196
-0.8684121
-0.86841196
-0.8684121
-0.8684121
-0.86841196
-0.86841184
-0.86841196
-0.86841196
-0.86872786
-0.8737411
-0.90386504
-0.9968757
-1.1740062
-1.4223442
-1.7561767
-2.8101132
-3.9051192
-1.5047443
-1.7097027
-1.4257324
-1.1742499
-0.9968756
-0.90386504
-0.87374157
-0.8687281
-0.8684121
-0.8684121
-0.8684121
-0.8684121
-0.8684122
-0.8684121
-0.8684121
-0.86841196
-0.86841196
-0.8684121
-0.8684121
-0.868728
-0.8737413
-0.90386504
-0.99687535
-1.1742501
-1.4671359
-2.5675683
-3.8366716
-1.339731
-1.4834666
-1.2014554
-1.0022514
-0.9054342
-0.87516624
-0.8701531
-0.8698372
-0.869837
-0.8698371
-0.869837
-0.86983687
-0.8698371
-0.8698371
-0.869837
-0.86983687
-0.869837
-0.8698371
-0.869837
-0.869837
-0.8701529
-0.87516624
-0.9054342
-1.0022514
-1.2448869
-2.3831549
-3.7853434
-1.2801843
-1.397898
-1.1159701
-0.9547382
-0.9095718
-0.9039059
-0.90359014
-0.90359014
-0.90359
-0.90359
-0.90359026
-0.9035899
-0.90359014
-0.90359014
-0.9035898
-0.9035898
-0.9035899
-0.90359
-0.90359
-0.9035899
-0.9035899
-0.9039059
-0.90957147
-0.9547382
-1.1601186
-2.3123884
-3.76604
-1.3709044
-1.5282578
-1.2709787
-1.1352963
-1.1064739
-1.1051023
-1.1051025
-1.1051025
-1.1051023
-1.1051023
-1.1051023
-1.1051023
-1.1051025
-1.1051023
-1.1051023
-1.1051023
-1.1051023
-1.1051025
-1.1051023
-1.1051023
-1.1051023
-1.1051025
-1.1064737
-1.1352963
-1.31441
-2.4197862
-3.7943342
-2.123188
-2.5522661
-2.3857315
-2.2928443
-2.273868
-2.2730575
-2.2730575
-2.2730575
-2.2730572
-2.2730575
-2.2730575
-2.2730575
-2.2730575
-2.2730575
-2.2730572
-2.2730572
-2.2730575
-2.2730575
-2.2730572
-2.2730575
-2.2730577
-2.2730575
-2.2738676
-2.2928443
-2.4189754
-3.2369733
-3.9844182
-2.9943516
-3.795974
-3.7853105
-3.7609117
-3.755987
-3.7557847
-3.7557847
-3.7557847
-3.755784
-3.7557847
-3.7557843
-3.755784
-3.7557843
-3.7557843
-3.755784
-3.7557845
-3.7557845
-3.7557847
-3.755784
-3.7557843
-3.7557845
-3.7557847
-3.755986
-3.7609117
-3.7941315
-3.9844196
-3.5066035
-3.5117192
-4.2823477
-4.0286746
-3.7236435
-3.4190464
-3.1150022
-2.8116748
-2.509307
-2.2082508
-1.9092777
-1.618109
-1.3583133
-1.1729515
-1.1049616
-1.1729512
-1.3583131
-1.6181087
-1.9092777
-2.2082508
-2.5093064
-2.8116748
-3.1150022
-3.4190464
-3.7236435
-4.0309234
-4.330278
-3.642009
-4.28235
-5.1991773
-4.8758073
-4.490185
-4.1052213
-3.7211108
-3.3381329
-2.9566982
-2.577445
-2.2014847
-1.8326731
-1.4889939
-1.2234664
-1.1192658
-1.2234659
-1.4889936
-1.8326738
-2.2014847
-2.5774453
-2.956697
-3.3381329
-3.7211108
-4.1052203
-4.490185
-4.8814964
-5.318406
-4.6064534
-4.028679
-4.87581
-4.545207
-4.1563706
-3.7683947
-3.3815563
-2.9962676
-2.6131742
-2.2333071
-1.8584805
-1.4923005
-1.1455367
-0.85962325
-0.7371288
-0.8596229
-1.1455362
-1.4923005
-1.8584805
-2.2333071
-2.6131725
-2.9962673
-3.381556
-3.7683945
-4.156371
-4.5547724
-5.0757127
-4.572076
-3.7236462
-4.4901867
-4.1563697
-3.7683933
-3.3815563
-2.9962673
-2.613173
-2.2333071
-1.8584797
-1.4921026
-1.1413107
-0.8223515
-0.5728043
-0.46841288
-0.5728041
-0.82235104
-1.1413105
-1.4921026
-1.8584797
-2.2333064
-2.6131723
-2.9962673
-3.3815556
-3.768393
-4.1698065
-4.7711153
-4.487296
-3.419049
-4.105222
-3.7683935
-3.3815553
-2.996267
-2.613174
-2.2333071
-1.8584805
-1.4921029
-1.1413107
-0.82200354
-0.56528944
-0.40818226
-0.3596909
-0.40818197
-0.5652891
-0.82200307
-1.1413107
-1.4921029
-1.85848
-2.2333066
-2.613174
-2.9962676
-3.3815553
-3.7856996
-4.467069
-4.40266
-3.1150038
-3.7211113
-3.381555
-2.9962666
-2.6131732
-2.2333071
-1.85848
-1.4921026
-1.1413107
-0.82200307
-0.5652893
-0.4075966
-0.3479054
-0.3369316
-0.34790522
-0.40759635
-0.56528926
-0.82200307
-1.1413107
-1.4921026
-1.85848
-2.233307
-2.6131725
-2.9962666
-3.4027216
-4.163742
-4.3182073
-2.8116765
-3.3381338
-2.9962666
-2.6131723
-2.233307
-1.85848
-1.4921026
-1.1413109
-0.8220032
-0.56528926
-0.4075966
-0.34790534
-0.33577263
-0.33456147
-0.33577245
-0.34790522
-0.40759647
-0.5652893
-0.8220032
-1.1413107
-1.4921024
-1.85848
-2.2333062
-2.613172
-3.0212865
-3.8613722
-4.2339997
-2.5093086
-2.956699
-2.6131725
-2.233307
-1.8584802
-1.4921029
-1.1413112
-0.8220034
-0.5652895
-0.4075967
-0.34790546
-0.33577257
-0.33448893
-0.3344164
-0.33448887
-0.33577257
-0.3479054
-0.4075967
-0.5652895
-0.82200307
-1.1413107
-1.4921029
-1.8584802
-2.233307
-2.6420343
-3.56032
-4.1501226
-2.208253
-2.5774455
-2.2333062
-1.8584802
-1.4921026
-1.1413109
-0.8220034
-0.56528956
-0.40759665
-0.3479054
-0.33577257
-0.3344888
-0.33441633
-0.33441633
-0.3344162
-0.3344888
-0.33577257
-0.3479054
-0.40759665
-0.56528914
-0.82200295
-1.1413109
-1.4921024
-1.8584802
-2.265996
-3.2611344
-4.0667167
-1.9092791
-2.2014859
-1.8584797
-1.4921021
-1.1413107
-0.82200307
-0.56528926
-0.4075967
-0.34790534
-0.33577263
-0.33448893
-0.33441633
-0.33441633
-0.33441633
-0.3344162
-0.3344162
-0.33448893
-0.33577263
-0.34790534
-0.4075964
-0.5652891
-0.82200307
-1.1413105
-1.4921021
-1.8949769
-2.964727
-3.9839866
-1.61811
-1.8326747
-1.4922996
-1.1413107
-0.8220033
-0.56528956
-0.40759665
-0.34790534
-0.3357725
-0.3344888
-0.33441633
-0.3344162
-0.33441627
-0.3344164
-0.3344162
-0.3344162
-0.33441627
-0.3344888
-0.3357725
-0.34790528
-0.40759647
-0.56528956
-0.8220027
-1.1413107
-1.5324967
-2.6730263
-3.9024289
-1.3583145
-1.4889948
-1.1455362
-0.8223515
-0.56528956
-0.40759683
-0.3479054
-0.3357727
-0.3344888
-0.33441633
-0.3344162
-0.33441627
-0.33441633
-0.33441627
-0.33441627
-0.3344162
-0.33441627
-0.33441633
-0.3344888
-0.33577257
-0.3479054
-0.40759677
-0.565289
-0.8223515
-1.1889677
-2.396578
-3.8253872
-1.1729527
-1.2234666
-0.8598513
-0.5741869
-0.4113124
-0.35176498
-0.33970487
-0.33842117
-0.3383485
-0.3383485
-0.33834857
-0.33834845
-0.33834857
-0.33834857
-0.33834845
-0.33834845
-0.3383485
-0.3383485
-0.3383485
-0.3384211
-0.3397048
-0.35176498
-0.41131222
-0.5741869
-0.9055092
-2.17727
-3.7656655
-1.1049621
-1.1196146
-0.7433036
-0.49713093
-0.4172166
-0.4051779
-0.4040916
-0.404019
-0.40401894
-0.40401894
-0.40401894
-0.40401894
-0.40401894
-0.40401894
-0.40401888
-0.40401888
-0.40401894
-0.40401894
-0.40401894
-0.40401894
-0.40409154
-0.4051779
-0.41721648
-0.49713093
-0.78975815
-2.0899503
-3.742621
-1.2056103
-1.2711236
-0.9412932
-0.7534044
-0.7103887
-0.70819634
-0.70819634
-0.70819634
-0.7081962
-0.70819634
-0.70819634
-0.70819616
-0.7081963
-0.70819634
-0.7081962
-0.7081961
-0.70819616
-0.70819634
-0.7081962
-0.7081962
-0.70819616
-0.70819634
-0.7103888
-0.7534044
-0.9869512
-2.216388
-3.7751155
-2.0141592
-2.3857324
-2.1804595
-2.0649486
-2.040634
-2.039599
-2.039599
-2.039599
-2.0395985
-2.039599
-2.0395985
-2.0395985
-2.0395987
-2.0395985
-2.0395985
-2.0395982
-2.0395985
-2.039599
-2.0395985
-2.0395985
-2.0395987
-2.039599
-2.0406334
-2.0649486
-2.2153533
-3.1106298
-3.984638
-2.9913769
-3.785313
-3.7656178
-3.736363
-3.7303514
-3.7301064
-3.7301064
-3.7301064
-3.7301056
-3.7301064
-3.7301059
-3.7301056
-3.7301059
-3.7301059
-3.7301056
-3.730106
-3.730106
-3.7301064
-3.7301056
-3.7301059
-3.730106
-3.7301064
-3.7303503
-3.736363
-3.7748702
-3.984639
-3.5332055
-3.4925003
-4.256806
-4.0010514
-3.6938715
-3.3867674
-3.079758
-2.7728727
-2.4661567
-2.1596732
-1.85375
-1.553606
-1.2830234
-1.0875504
-1.0151465
-1.0875499
-1.2830234
-1.553606
-1.85375
-2.1596732
-2.466156
-2.7728727
-3.079758
-3.386767
-3.6938715
-4.0035357
-4.3097405
-3.6363971
-4.256808
-5.1651435
-4.8388567
-4.450184
-4.0616226
-3.673209
-3.2849936
-2.8970525
-2.5095048
-2.1226327
-1.7389705
-1.375181
-1.0868568
-0.97070724
-1.0868568
-1.3751805
-1.7389705
-2.1226327
-2.5095048
-2.8970518
-3.2849934
-3.673209
-4.0616217
-4.450184
-4.8448596
-5.2910175
-4.598976
-4.0010557
-4.8388615
-4.504871
-4.1124105
-3.7201016
-3.327991
-2.9361548
-2.5447152
-2.15387
-1.7639945
-1.376054
-0.9960163
-0.6626275
-0.5078695
-0.66262716
-0.9960156
-1.376054
-1.7639945
-2.15387
-2.5447145
-2.9361548
-3.327991
-3.720101
-4.1124105
-4.5147715
-5.04594
-4.5639634
-3.6938741
-4.450187
-4.112409
-3.7201002
-3.3279908
-2.9361544
-2.5447142
-2.15387
-1.763994
-1.3758411
-0.99119
-0.6158103
-0.2797078
-0.11427593
-0.27970743
-0.61581
-0.9911899
-1.3758411
-1.763994
-2.1538699
-2.544714
-2.9361544
-3.3279898
-3.7201
-4.126208
-4.738836
-4.478514
-3.38677
-4.0616236
-3.7201002
-3.3279898
-2.9361546
-2.5447152
-2.1538706
-1.7639945
-1.3758414
-0.99119014
-0.615362
-0.26808667
-0.0019461215
0.10405789
-0.0019458979
-0.26808628
-0.6153618
-0.99119014
-1.3758414
-1.7639945
-2.1538708
-2.5447152
-2.9361546
-3.32799
-3.7377973
-4.431826
-4.3930926
-3.07976
-3.6732097
-3.3279893
-2.936154
-2.544715
-2.1538706
-1.763994
-1.3758416
-0.99119014
-0.61536187
-0.26808655
-5.9604645e-8
0.14491177
0.18884766
0.14491186
1.4901161e-7
-0.26808643
-0.61536187
-0.99119014
-1.3758409
-1.7639945
-2.1538706
-2.5447135
-2.936154
-3.349582
-4.1249394
-4.307699
-2.7728746
-3.2849946
-2.9361534
-2.5447145
-2.1538706
-1.7639942
-1.3758414
-0.99119025
-0.61536175
-0.26808652
-2.9802322e-8
0.14535698
0.20166893
0.2153277
0.20166896
0.14535707
2.9802322e-8
-0.26808652
-0.61536175
-0.99118954
-1.3758411
-1.7639942
-2.1538696
-2.5447145
-2.9616406
-3.8182232
-4.2223506
-2.4661589
-2.8970528
-2.5447137
-2.1538703
-1.7639942
-1.3758414
-0.9911904
-0.61536235
-0.26808667
-1.3411045e-7
0.14535695
0.20174152
0.2181942
0.22107196
0.2181942
0.20174156
0.14535698
-1.3411045e-7
-0.26808667
-0.615362
-0.99119014
-1.3758414
-1.763994
-2.15387
-2.5740936
-3.511742
-4.1370587
-2.1596746
-2.5095057
-2.1538696
-1.763994
-1.3758416
-0.99119014
-0.61536205
-0.26808676
-7.4505806e-8
0.14535698
0.20174152
0.2181942
0.22136237
0.22165276
0.22136235
0.2181942
0.20174155
0.14535698
-7.4505806e-8
-0.2680864
-0.61536187
-0.99119014
-1.3758409
-1.763994
-2.1871402
-3.2055972
-4.051853
-1.853751
-2.1226332
-1.7639937
-1.3758411
-0.99119014
-0.61536187
-0.26808658
-8.940697e-8
0.14535701
0.20174155
0.2181942
0.22136235
0.22165278
0.22165276
0.22165276
0.22136235
0.2181942
0.20174155
0.14535701
1.4901161e-7
-0.2680863
-0.61536187
-0.99118954
-1.3758411
-1.8011508
-2.899968
-3.96677
-1.5536072
-1.738971
-1.3760536
-0.99119
-0.61536205
-0.2680866
-1.3411045e-7
0.14535695
0.20174153
0.2181942
0.22136235
0.22165276
0.22165276
0.22165278
0.22165276
0.22165276
0.22136235
0.2181942
0.20174153
0.14535704
1.4901161e-8
-0.2680866
-0.61536163
-0.99119
-1.4170122
-2.5955434
-3.8820174
-1.2830248
-1.3751812
-0.99601585
-0.61598593
-0.2688111
-0.0011997819
0.14366044
0.19954763
0.2158551
0.21902327
0.21931368
0.21931368
0.21931368
0.21931368
0.21931367
0.21931367
0.21931367
0.21902327
0.2158551
0.19954765
0.14366047
-0.0011997819
-0.26881072
-0.61598593
-1.0403233
-2.3013813
-3.8007042
-1.0875514
-1.0868573
-0.66311926
-0.2855373
-0.02187033
0.11517073
0.16819847
0.18308133
0.1858548
0.1861452
0.18614522
0.18614522
0.18614522
0.18614522
0.18614519
0.18614522
0.18614522
0.1861452
0.1858548
0.18308134
0.16819848
0.11517073
-0.021870136
-0.28553736
-0.7097518
-2.061319
-3.73642
-1.015147
-0.9711558
-0.51685864
-0.168035
-0.034220725
-0.0013311654
0.008489668
0.010568425
0.010713637
0.010713652
0.010713637
0.010713682
0.010713652
0.010713652
0.010713652
0.010713667
0.010713667
0.010713652
0.010713637
0.01056841
0.008489683
-0.0013311654
-0.034220666
-0.168035
-0.5643277
-1.9629779
-3.7112114
-1.120847
-1.1359904
-0.7542941
-0.51532
-0.45611113
-0.45230794
-0.45193535
-0.45186275
-0.4518627
-0.4518627
-0.4518628
-0.4518627
-0.45186275
-0.4518628
-0.4518627
-0.45186263
-0.4518627
-0.4518627
-0.4518627
-0.45186275
-0.45193535
-0.45230794
-0.45611107
-0.51531994
-0.800927
-2.1017537
-3.7460716
-1.9527254
-2.2928455
-2.064948
-1.9339683
-1.9057059
-1.90451
-1.90451
-1.90451
-1.9045098
-1.90451
-1.9045098
-1.9045098
-1.90451
-1.9045098
-1.9045098
-1.9045093
-1.9045098
-1.90451
-1.9045098
-1.9045098
-1.90451
-1.90451
-1.9057052
-1.9339683
-2.1005578
-3.032871
-3.9643276
-2.974899
-3.7609127
-3.7363622
-3.7042637
-3.697588
-3.6973174
-3.6973174
-3.6973174
-3.697317
-3.6973174
-3.6973176
-3.697317
-3.697317
-3.6973176
-3.6973166
-3.6973164
-3.697317
-3.6973174
-3.697317
-3.6973166
-3.697317
-3.6973174
-3.6975873
-3.7042637
-3.7458007
-3.9643285
-3.5278487
-3.4887934
-4.251875
-3.9957187
-3.6881204
-3.3805256
-3.0729334
-2.7653458
-2.4577663
-2.1501946
-1.8428602
-1.5408607
-1.2679892
-1.0703077
-0.99691683
-1.0703073
-1.2679887
-1.5408604
-1.8428602
-2.1501946
-2.457765
-2.765346
-3.0729334
-3.3805256
-3.6881204
-3.998244
-4.3057775
-3.6353185
-4.251877
-5.158568
-4.831721
-4.4424467
-4.0531816
-3.6639185
-3.2746642
-2.8854208
-2.4961941
-2.1070712
-1.7202599
-1.3520069
-1.0582957
-0.93915707
-1.0582955
-1.352006
-1.7202597
-2.1070712
-2.4961941
-2.8854196
-3.2746637
-3.6639185
-4.0531807
-4.4424467
-4.8377786
-5.285726
-4.5975366
-3.9957235
-4.831726
-4.497074
-4.1039057
-3.7107422
-3.3175867
-2.9244404
-2.5313122
-2.1382046
-1.7451398
-1.3523605
-0.9642708
-0.6175951
-0.45256346
-0.61759466
-0.96427006
-1.35236
-1.7451398
-2.1382046
-2.5313118
-2.9244401
-3.3175867
-3.7107413
-4.1039057
-4.5070343
-5.040191
-4.562401
-3.6881237
-4.4424496
-4.1039047
-3.7107406
-3.3175855
-2.9244401
-2.5313115
-2.1382046
-1.7451391
-1.352144
-0.95929164
-0.5676045
-0.19548723
0.005210191
-0.19548687
-0.5676041
-0.9592913
-1.352144
-1.7451391
-2.138204
-2.531311
-2.9244401
-3.3175843
-3.7107403
-4.117767
-4.7325916
-4.4768233
-3.3805285
-4.053182
-3.7107408
-3.3175855
-2.92444
-2.5313127
-2.1382048
-1.7451396
-1.3521442
-0.95929176
-0.5671279
-0.18073979
0.17234385
0.3548176
0.17234422
-0.18073931
-0.56712765
-0.95929176
-1.3521442
-1.7451394
-2.1382046
-2.5313125
-2.9244394
-3.3175855
-3.7285066
-4.4250016
-4.391245
-3.072935
-3.6639187
-3.3175848
-2.9244394
-2.5313118
-2.138205
-1.7451396
-1.3521447
-0.95929176
-0.5671278
-0.18073967
0.1774673
0.46198416
0.58957595
0.46198446
0.17746769
-0.18073946
-0.5671278
-0.95929176
-1.3521433
-1.7451394
-2.138205
-2.53131
-2.9244394
-3.3392525
-4.1174116
-4.3056693
-2.7653477
-3.2746649
-2.9244387
-2.5313115
-2.1382048
-1.7451396
-1.3521442
-0.959292
-0.56712776
-0.18073955
0.17746739
0.46456128
0.6492529
0.71744263
0.649253
0.46456158
0.17746758
-0.18073955
-0.56712776
-0.9592914
-1.3521435
-1.7451396
-2.1382034
-2.5313115
-2.9500086
-3.8098323
-4.220093
-2.457768
-2.8854213
-2.531311
-2.1382048
-1.7451396
-1.3521442
-0.959292
-0.56712824
-0.18073979
0.17746738
0.46456122
0.6501654
0.7410265
0.7660324
0.7410265
0.65016556
0.4645614
0.17746738
-0.18073979
-0.5671277
-0.9592915
-1.3521442
-1.7451389
-2.1382046
-2.5607827
-3.5022628
-4.1345205
-2.150196
-2.4961948
-2.1382036
-1.7451396
-1.3521442
-0.959292
-0.567128
-0.18073991
0.1774674
0.46456143
0.65016544
0.74117166
0.77203304
0.7784418
0.772033
0.7411717
0.65016556
0.46456143
0.1774674
-0.18073943
-0.56712765
-0.959292
-1.3521433
-1.7451396
-2.1715777
-3.194706
-4.048953
-1.8428617
-2.1070719
-1.7451389
-1.352144
-0.95929176
-0.5671278
-0.18073961
0.17746733
0.4645614
0.65016556
0.7410389
0.77136415
0.7789329
0.78099465
0.77893287
0.77136415
0.7410389
0.65016556
0.4645614
0.17746772
-0.18073934
-0.5671278
-0.9592909
-1.352144
-1.7824147
-2.8871682
-3.9633877
-1.5408618
-1.7202601
-1.3523593
-0.95929176
-0.5671278
-0.1808424
0.1769404
0.46350682
0.6487089
0.73903334
0.76870686
0.7747756
0.77600867
0.77648515
0.77600867
0.77477574
0.7687068
0.73903334
0.6487089
0.46350712
0.1769406
-0.1808424
-0.5671274
-0.95929176
-1.3934548
-2.5800307
-3.8779662
-1.2679904
-1.3520069
-0.9642703
-0.56825644
-0.18363845
0.17044881
0.4477989
0.62243176
0.70889354
0.7369294
0.7420748
0.7426559
0.74269855
0.7426985
0.74269855
0.7426559
0.74207467
0.7369294
0.70889354
0.6224319
0.44779906
0.17044881
-0.18363798
-0.56825644
-1.0087366
-2.281906
-3.7957246
-1.0703087
-1.0582957
-0.6185889
-0.21187788
0.108568214
0.35177982
0.495947
0.5536011
0.57277846
0.5769802
0.5772706
0.57727057
0.5772706
0.5772706
0.5772706
0.5772705
0.57727057
0.5769802
0.57277846
0.55360115
0.49594706
0.35177982
0.10856856
-0.21187788
-0.6653994
-2.0368896
-3.7304103
-0.9969173
-0.93963367
-0.4635535
-0.08183238
0.0783941
0.1450069
0.17700666
0.18496291
0.1860002
0.18614538
0.1861454
0.1861454
0.1861454
0.1861454
0.1861454
0.1861454
0.18614538
0.18614538
0.1860002
0.18496291
0.17700666
0.1450069
0.078394234
-0.08183238
-0.5112085
-1.9357662
-3.7046983
-1.1037195
-1.1077409
-0.7124512
-0.45831144
-0.3936687
-0.38803756
-0.3866521
-0.38638216
-0.38638198
-0.3863821
-0.38638204
-0.38638198
-0.38638204
-0.38638204
-0.38638192
-0.38638192
-0.38638198
-0.3863821
-0.38638198
-0.38638198
-0.38665193
-0.38803756
-0.3936686
-0.45831144
-0.7592617
-2.077607
-3.740099
-1.9404202
-2.2738688
-2.0406332
-1.9057062
-1.8764036
-1.8751688
-1.8751688
-1.8751688
-1.8751686
-1.8751688
-1.8751686
-1.8751686
-1.8751688
-1.8751686
-1.8751683
-1.8751681
-1.8751686
-1.8751688
-1.8751686
-1.8751686
-1.8751688
-1.8751688
-1.8764031
-1.9057062
-2.0763724
-3.016908
-3.960213
-2.971621
-3.7559876
-3.7303503
-3.6975877
-3.6907547
-3.6904783
-3.6904783
-3.6904783
-3.6904776
-3.6904783
-3.6904778
-3.6904774
-3.6904776
-3.6904778
-3.6904771
-3.6904774
-3.6904776
-3.6904783
-3.6904776
-3.6904774
-3.6904776
-3.6904783
-3.6907535
-3.6975877
-3.7398224
-3.9602144
-3.5267737
-3.4886365
-4.251666
-3.9954946
-3.6878786
-3.380263
-3.0726466
-2.7650292
-2.4574134
-2.149796
-1.8424017
-1.5403235
-1.2673547
-1.0695791
-0.99614686
-1.0695784
-1.2673545
-1.5403235
-1.8424017
-2.149796
-2.4574122
-2.7650294
-3.0726466
-3.3802629
-3.6878786
-3.99802
-4.3056097
-3.635274
-4.2516685
-5.158289
-4.8314195
-4.4421215
-4.0528255
-3.663527
-3.2742286
-2.8849301
-2.4956324
-2.1064146
-1.7194698
-1.3510244
-1.0570796
-0.93781453
-1.0570793
-1.3510232
-1.7194693
-2.1064146
-2.4956324
-2.884929
-3.2742283
-3.663527
-4.0528245
-4.4421215
-4.837477
-5.2855024
-4.597478
-3.9954994
-4.831425
-4.4967494
-4.10355
-3.7103508
-3.317151
-2.92395
-2.5307505
-2.137548
-1.744349
-1.3513646
-0.96293014
-0.6154873
-0.44970483
-0.61548686
-0.9629293
-1.3513641
-1.744349
-2.137548
-2.5307496
-2.9239495
-3.317151
-3.7103498
-4.10355
-4.5067096
-5.0399494
-4.5623374
-3.6878817
-4.4421244
-4.1035485
-3.7103488
-3.3171496
-2.92395
-2.5307498
-2.137548
-1.7443483
-1.3511481
-0.95794827
-0.5652244
-0.18770492
0.02069822
-0.18770462
-0.565224
-0.9579479
-1.3511481
-1.7443483
-2.1375473
-2.530749
-2.92395
-3.3171487
-3.7103488
-4.1174107
-4.7323303
-4.476754
-3.3802657
-4.0528264
-3.7103493
-3.3171496
-2.9239495
-2.5307508
-2.1375482
-1.7443488
-1.3511484
-0.9579485
-0.5647478
-0.17192847
0.20950149
0.42556334
0.20950192
-0.17192796
-0.5647475
-0.9579485
-1.3511484
-1.7443485
-2.137548
-2.5307508
-2.9239488
-3.3171496
-3.728115
-4.424715
-4.3911705
-3.0726485
-3.6635275
-3.3171494
-2.9239488
-2.5307503
-2.1375484
-1.7443488
-1.3511488
-0.9579484
-0.56474775
-0.17192832
0.21700913
0.58234084
0.78046227
0.5823412
0.21700956
-0.17192814
-0.56474775
-0.9579485
-1.3511477
-1.7443485
-2.1375484
-2.530748
-2.9239488
-3.3388171
-4.1170955
-4.3055863
-2.7650313
-3.2742293
-2.923948
-2.5307498
-2.1375484
-1.7443488
-1.3511484
-0.95794874
-0.5647477
-0.1719282
0.21700925
0.5881555
0.9080798
1.0656103
0.90808004
0.588156
0.21700945
-0.1719282
-0.5647477
-0.95794815
-1.3511479
-1.7443488
-2.137547
-2.5307498
-2.949518
-3.809479
-4.2200017
-2.4574149
-2.8849304
-2.5307493
-2.1375482
-1.7443488
-1.3511484
-0.9579486
-0.5647482
-0.1719284
0.21700923
0.5881555
0.91175026
1.1487076
1.2457724
1.1487081
0.91175056
0.58815575
0.21700923
-0.1719284
-0.56474763
-0.95794827
-1.3511484
-1.744348
-2.137548
-2.560221
-3.5018637
-4.134417
-2.1497974
-2.4956331
-2.137547
-1.7443485
-1.3511484
-0.9579485
-0.56474787
-0.1719285
0.21700925
0.5881558
0.91161764
1.1500876
1.2924371
1.3506966
1.2924373
1.1500877
0.91161776
0.5881558
0.21700925
-0.17192808
-0.5647475
-0.9579486
-1.3511477
-1.7443485
-2.170921
-3.1942472
-4.0488343
-1.8424034
-2.1064153
-1.7443478
-1.3511481
-0.9579485
-0.5647477
-0.17192823
0.2169791
0.5878687
0.91064894
1.1458535
1.2783349
1.3562438
1.3949065
1.3562441
1.2783353
1.1458538
0.91064894
0.5878687
0.21697955
-0.17192802
-0.5647477
-0.9579477
-1.3511481
-1.7816236
-2.8866293
-3.96325
-1.5403249
-1.71947
-1.3513634
-0.9579484
-0.5647478
-0.17231014
0.21498966
0.5832201
0.8999985
1.1232657
1.2414994
1.2884347
1.3104031
1.3210411
1.3104029
1.2884347
1.2414994
1.1232657
0.8999985
0.5832206
0.21498989
-0.17231014
-0.56474733
-0.9579484
-1.3924592
-2.5793765
-3.8778012
-1.2673559
-1.3510244
-0.96292955
-0.56605166
-0.17610958
0.20112155
0.5368156
0.81375104
1.0108
1.0968924
1.1240995
1.1320245
1.1339235
1.1344426
1.1339235
1.1320245
1.1240995
1.0968924
1.0108
0.8137512
0.5368159
0.20112155
-0.17610916
-0.56605166
-1.007396
-2.2810817
-3.795521
-1.0695796
-1.0570798
-0.61665636
-0.20814306
0.12368607
0.40144637
0.58328134
0.67685413
0.726574
0.74073666
0.74236554
0.74265635
0.74269897
0.7426989
0.74269885
0.74265635
0.74236554
0.74073666
0.726574
0.67685413
0.5832814
0.40144637
0.12368644
-0.20814306
-0.6634668
-2.0358515
-3.7301652
-0.99614733
-0.93829113
-0.4611969
-0.077736616
0.086876065
0.16481157
0.20512386
0.2162396
0.21877408
0.219314
0.219314
0.219314
0.219314
0.21931398
0.21931398
0.21931398
0.219314
0.219314
0.21877408
0.2162396
0.20512386
0.16481157
0.086876154
-0.077736616
-0.5088519
-1.9346087
-3.7044334
-1.1029904
-1.1065273
-0.7106155
-0.4557646
-0.39073068
-0.3845505
-0.3827924
-0.38244987
-0.3824498
-0.3824498
-0.3824498
-0.3824497
-0.3824498
-0.38244975
-0.3824497
-0.3824497
-0.3824498
-0.3824498
-0.3824498
-0.38244975
-0.3827923
-0.3845505
-0.39073062
-0.4557646
-0.757426
-2.076571
-3.7398536
-1.9398978
-2.2730577
-2.0395975
-1.9045095
-1.8751686
-1.8739338
-1.8739338
-1.8739338
-1.8739336
-1.8739338
-1.8739336
-1.8739333
-1.8739338
-1.8739336
-1.8739333
-1.8739331
-1.8739336
-1.8739338
-1.8739336
-1.8739333
-1.8739336
-1.8739338